# vtk DataFile Version 2.0
RAYS=20000 MAXRAYS=20000 REFLECTIONS=12 EXPECTATION=0.2 RUNTIME=27
ASCII
DATASET UNSTRUCTURED_GRID
POINTS 4210 float
0.000000 0.000000 0.000000
0.000000 3.000000 0.000000
0.000000 0.000000 0.000000
0.000000 -3.000000 0.000000
3.000000 -0.000000 0.000000
1.500000 0.000000 0.000000
1.488172 0.188000 0.000000
1.452875 0.373035 0.000000
1.394665 0.552187 0.000000
1.314460 0.722631 0.000000
1.213525 0.881678 0.000000
1.093453 1.026821 0.000000
0.956136 1.155770 0.000000
0.803740 1.266492 0.000000
0.638669 1.357241 0.000000
0.463525 1.426585 0.000000
0.281072 1.473431 0.000000
0.094186 1.497040 0.000000
-0.094186 1.497040 0.000000
-0.281072 1.473431 0.000000
-0.463525 1.426585 0.000000
-0.638669 1.357241 0.000000
-0.803740 1.266492 0.000000
-0.956136 1.155770 0.000000
-1.093453 1.026821 0.000000
-1.213525 0.881678 0.000000
-1.314460 0.722631 0.000000
-1.394665 0.552187 0.000000
-1.452875 0.373035 0.000000
-1.488172 0.188000 0.000000
-1.500000 0.000000 0.000000
-1.488172 -0.188000 0.000000
-1.452875 -0.373035 0.000000
-1.394665 -0.552187 0.000000
-1.314460 -0.722631 0.000000
-1.213525 -0.881678 0.000000
-1.093453 -1.026821 0.000000
-0.956136 -1.155770 0.000000
-0.803740 -1.266492 0.000000
-0.638669 -1.357241 0.000000
-0.463525 -1.426585 0.000000
-0.281072 -1.473431 0.000000
-0.094186 -1.497040 0.000000
0.094186 -1.497040 0.000000
0.281072 -1.473431 0.000000
0.463525 -1.426585 0.000000
0.638669 -1.357241 0.000000
0.803740 -1.266492 0.000000
0.956136 -1.155770 0.000000
1.093453 -1.026821 0.000000
1.213525 -0.881678 0.000000
1.314460 -0.722631 0.000000
1.394665 -0.552187 0.000000
1.452875 -0.373035 0.000000
1.488172 -0.188000 0.000000
1.500000 -0.000000 0.000000
-2.909201 0.732495 0.000000
-2.594842 -1.505587 0.000000
-2.638639 1.427440 0.000000
-2.897888 -0.776043 0.000000
-2.422707 -0.298545 0.000000
-2.238846 0.805582 0.000000
-2.118548 -2.124089 0.000000
-2.276278 -0.886140 0.000000
-1.828403 -0.304616 0.000000
-2.353945 0.289202 0.000000
-1.925117 0.233712 0.000000
-1.786889 0.820902 0.000000
-2.029364 -0.521895 0.000000
-1.629488 -0.356157 0.000000
-2.080323 -0.083493 0.000000
-1.675572 0.207720 0.000000
-1.916550 0.521022 0.000000
-2.030090 1.266755 0.000000
-2.196421 2.043461 0.000000
-1.856133 -0.917436 0.000000
-1.589271 -0.861532 0.000000
-1.734333 -0.607227 0.000000
-1.566491 -0.522834 0.000000
-1.647787 -0.157151 0.000000
-1.643746 0.051159 0.000000
-1.804189 -0.023743 0.000000
-1.654799 0.373712 0.000000
-1.618032 0.551013 0.000000
-1.526880 0.692383 0.000000
-1.638824 1.085004 0.000000
-1.687576 1.519701 0.000000
-1.559334 2.562904 0.000000
-1.499699 -2.598250 0.000000
-1.980230 -1.369809 0.000000
-1.576217 -1.157325 0.000000
-1.400763 -0.908597 0.000000
-1.498906 -0.703798 0.000000
-1.262561 -0.405207 0.000000
-1.325229 -0.238592 0.000000
-1.294395 -0.073336 0.000000
-1.342783 0.089657 0.000000
-1.274128 0.248725 0.000000
-1.282154 0.409532 0.000000
-1.202752 0.571985 0.000000
-1.481295 0.848950 0.000000
-1.373347 0.983815 0.000000
-1.406351 1.252992 0.000000
-1.522484 1.918380 0.000000
-1.373411 -1.963044 0.000000
-1.621706 -1.606012 0.000000
-1.339450 -1.328073 0.000000
-1.163148 -1.184234 0.000000
-1.307059 -1.064928 0.000000
-1.111339 -0.714956 0.000000
-1.195044 -0.564126 0.000000
-1.075053 -0.396619 0.000000
-1.153617 -0.228880 0.000000
-1.080389 -0.068198 0.000000
-1.160998 0.086398 0.000000
-1.064069 0.244083 0.000000
-1.111697 0.402074 0.000000
-1.012656 0.572156 0.000000
-1.116688 0.725485 0.000000
-1.021599 0.878780 0.000000
-1.244932 1.093697 0.000000
-1.252883 1.489066 0.000000
-1.017846 2.234939 0.000000
-1.179930 -1.567406 0.000000
-1.053996 -1.319435 0.000000
-0.905499 -0.996792 0.000000
-1.012178 -0.855656 0.000000
-0.900589 -0.708474 0.000000
-0.994556 -0.556701 0.000000
-0.880854 -0.393728 0.000000
-0.966799 -0.229171 0.000000
-0.874739 -0.067133 0.000000
-0.962875 0.089737 0.000000
-0.860968 0.253597 0.000000
-0.929128 0.410759 0.000000
-0.827102 0.590191 0.000000
-0.919263 0.743986 0.000000
-0.877530 0.958616 0.000000
-1.139079 1.238591 0.000000
-0.994711 1.350317 0.000000
-1.119491 1.793089 0.000000
-0.800326 2.891276 0.000000
-0.766508 -2.900425 0.000000
-0.925965 -2.242017 0.000000
-0.930658 -1.764132 0.000000
-0.761677 -1.510390 0.000000
-0.919790 -1.443971 0.000000
-0.747146 -1.059613 0.000000
-0.799886 -0.861148 0.000000
-0.695454 -0.711566 0.000000
-0.791442 -0.552738 0.000000
-0.683730 -0.391272 0.000000
-0.773890 -0.228518 0.000000
-0.675849 -0.062509 0.000000
-0.765785 0.097233 0.000000
-0.665912 0.268994 0.000000
-0.744879 0.429502 0.000000
-0.654114 0.620661 0.000000
-0.755801 0.791389 0.000000
-0.670916 0.954646 0.000000
-0.774878 1.099583 0.000000
-0.798699 1.438706 0.000000
-0.936656 1.554604 0.000000
-0.778650 1.816132 0.000000
-0.613538 -1.991289 0.000000
-0.623232 -1.708906 0.000000
-0.574768 -1.536815 0.000000
-0.637935 -1.183000 0.000000
-0.527517 -1.042693 0.000000
-0.620173 -0.894249 0.000000
-0.506695 -0.728469 0.000000
-0.591550 -0.554046 0.000000
-0.488790 -0.389143 0.000000
-0.580064 -0.224802 0.000000
-0.481643 -0.055594 0.000000
-0.572939 0.107799 0.000000
-0.476523 0.283394 0.000000
-0.564026 0.450823 0.000000
-0.467621 0.626149 0.000000
-0.564974 0.793433 0.000000
-0.489619 0.976915 0.000000
-0.606188 1.149723 0.000000
-0.474209 1.259000 0.000000
-0.664639 1.562992 0.000000
-0.361314 -2.351133 0.000000
-0.347931 -1.862602 0.000000
-0.392898 -1.624563 0.000000
-0.314632 -1.291518 0.000000
-0.466427 -1.227217 0.000000
-0.334911 -1.067053 0.000000
-0.416318 -0.890397 0.000000
-0.311820 -0.722233 0.000000
-0.401148 -0.558473 0.000000
-0.297809 -0.388916 0.000000
-0.387770 -0.220789 0.000000
-0.290146 -0.050366 0.000000
-0.382915 0.116782 0.000000
-0.286034 0.288741 0.000000
-0.376523 0.457235 0.000000
-0.282859 0.634056 0.000000
-0.381274 0.805960 0.000000
-0.284326 0.967172 0.000000
-0.384011 1.119341 0.000000
-0.289290 1.299665 0.000000
-0.486498 1.578634 0.000000
-0.509570 1.802701 0.000000
-0.101563 -1.977670 0.000000
-0.188506 -1.671110 0.000000
-0.124918 -1.333493 0.000000
-0.195311 -1.165235 0.000000
-0.113965 -1.016960 0.000000
-0.227117 -0.889926 0.000000
-0.118453 -0.720693 0.000000
-0.207391 -0.554556 0.000000
-0.105501 -0.386449 0.000000
-0.197361 -0.218784 0.000000
-0.099430 -0.048144 0.000000
-0.192468 0.120437 0.000000
-0.096306 0.291649 0.000000
-0.189468 0.462193 0.000000
-0.093646 0.632792 0.000000
-0.187507 0.803070 0.000000
-0.093180 0.978374 0.000000
-0.189107 1.143565 0.000000
-0.099983 1.326652 0.000000
-0.325851 1.653169 0.000000
-0.257260 1.938503 0.000000
-0.581261 2.189689 0.000000
0.728906 -2.910102 0.000000
0.138702 -2.388376 0.000000
0.006302 -1.694384 0.000000
0.066748 -1.339225 0.000000
-0.004377 -1.175734 0.000000
0.091921 -1.020938 0.000000
-0.014127 -0.866527 0.000000
0.086764 -0.712183 0.000000
-0.013640 -0.553874 0.000000
0.086266 -0.383785 0.000000
-0.006469 -0.216376 0.000000
0.091687 -0.046957 0.000000
-0.002137 0.122227 0.000000
0.094640 0.291456 0.000000
-0.000144 0.461475 0.000000
0.094035 0.632614 0.000000
0.000281 0.805837 0.000000
0.093538 0.978368 0.000000
-0.000091 1.156614 0.000000
0.099027 1.326612 0.000000
-0.165002 1.672892 0.000000
0.022611 1.816561 0.000000
-0.228238 2.436789 0.000000
0.183382 -1.934237 0.000000
0.201969 -1.663509 0.000000
0.262470 -1.329495 0.000000
0.191948 -1.179932 0.000000
0.299051 -1.046919 0.000000
0.192283 -0.874908 0.000000
0.282894 -0.707991 0.000000
0.183020 -0.545905 0.000000
0.281160 -0.379277 0.000000
0.185306 -0.214868 0.000000
0.284471 -0.048968 0.000000
0.188986 0.120689 0.000000
0.284873 0.288317 0.000000
0.189248 0.461765 0.000000
0.283234 0.633568 0.000000
0.188019 0.802867 0.000000
0.284622 0.967068 0.000000
0.189022 1.143637 0.000000
0.288710 1.299846 0.000000
0.021408 1.639504 0.000000
0.212130 1.664657 0.000000
0.368069 2.376161 0.000000
0.952046 -2.247526 0.000000
0.416733 -1.809235 0.000000
0.393730 -1.607491 0.000000
0.407730 -1.228687 0.000000
0.481353 -1.041448 0.000000
0.382753 -0.873479 0.000000
0.476262 -0.698975 0.000000
0.379094 -0.540487 0.000000
0.479822 -0.382275 0.000000
0.380277 -0.216988 0.000000
0.478424 -0.054907 0.000000
0.380671 0.116650 0.000000
0.475929 0.282588 0.000000
0.376517 0.456556 0.000000
0.468024 0.625477 0.000000
0.381700 0.805563 0.000000
0.489811 0.976710 0.000000
0.383953 1.119413 0.000000
0.473844 1.259136 0.000000
0.384454 1.613084 0.000000
0.525222 1.716089 0.000000
0.310938 1.897805 0.000000
0.046002 2.108398 0.000000
0.510649 -2.215594 0.000000
0.674136 -1.844077 0.000000
0.577288 -1.575210 0.000000
0.775406 -1.578549 0.000000
0.588352 -1.197358 0.000000
0.660771 -0.995204 0.000000
0.569641 -0.853105 0.000000
0.681872 -0.702747 0.000000
0.581318 -0.544380 0.000000
0.679762 -0.389410 0.000000
0.576399 -0.223163 0.000000
0.674369 -0.063038 0.000000
0.571887 0.107144 0.000000
0.665826 0.267824 0.000000
0.564215 0.449844 0.000000
0.654504 0.619791 0.000000
0.565359 0.792921 0.000000
0.671115 0.954315 0.000000
0.606137 1.149691 0.000000
0.793559 1.468152 0.000000
0.601729 1.537198 0.000000
0.631029 1.987450 0.000000
0.995227 -1.822854 0.000000
0.849383 -1.431511 0.000000
0.756430 -1.117301 0.000000
0.885323 -0.992486 0.000000
0.781568 -0.854349 0.000000
0.893158 -0.712880 0.000000
0.786150 -0.553305 0.000000
0.878111 -0.396395 0.000000
0.772199 -0.229324 0.000000
0.874225 -0.069192 0.000000
0.765537 0.095780 0.000000
0.861103 0.252001 0.000000
0.745214 0.428355 0.000000
0.827509 0.589245 0.000000
0.756133 0.790730 0.000000
0.877726 0.958214 0.000000
0.774930 1.099368 0.000000
0.940546 1.362581 0.000000
0.786041 1.683318 0.000000
0.939727 2.259475 0.000000
1.087029 -1.569019 0.000000
0.992968 -1.328583 0.000000
1.151060 -1.181632 0.000000
1.002966 -0.863315 0.000000
1.105681 -0.721851 0.000000
0.990111 -0.562080 0.000000
1.072545 -0.401718 0.000000
0.965651 -0.232493 0.000000
1.080051 -0.071429 0.000000
0.962894 0.087525 0.000000
1.064171 0.242281 0.000000
0.929435 0.409410 0.000000
[...]
POINT_DATA 4210
SCALARS scalars float 1
LOOKUP_TABLE default
0.000319
0.000317
0.000320
0.000314
0.000316
0.009786
0.003857
0.003941
0.030097
0.007012
0.006532
0.004538
0.004096
0.003938
0.005795
0.020786
0.008034
0.022127
0.004305
0.005633
0.039406
0.003481
0.005688
0.009882
0.003820
0.004523
0.006785
0.006994
0.008456
0.003913
0.005415
0.005980
0.005180
0.015858
0.004328
0.006980
0.007439
0.011433
0.004198
0.009541
0.004349
0.004248
0.007396
0.004938
0.004554
0.006017
0.005401
0.005966
0.005794
0.003898
0.004880
0.004596
0.005215
0.003804
0.006510
0.003167
0.000316
0.000313
0.000328
0.000309
0.000657
0.000719
0.000312
0.000641
0.001471
0.000723
0.001295
0.001284
0.001029
0.002358
0.001047
0.002191
0.001223
0.000702
0.000329
0.001067
0.001599
0.001512
0.003014
0.002305
0.002298
0.001585
0.002294
0.002110
0.002121
0.001265
0.000829
0.000325
0.000314
0.000669
0.001274
0.002255
0.002523
0.007354
0.008701
0.025606
0.006752
0.017915
0.004940
0.008555
0.002055
0.003947
0.001430
0.000673
0.000691
0.000813
0.001413
0.004043
0.002484
0.008215
0.006821
0.019192
0.007479
0.008622
0.006268
0.009658
0.008112
0.008630
0.006959
0.006992
0.003757
0.001325
0.000649
0.001274
0.002507
0.005435
0.005900
0.007710
0.008100
0.008061
0.006747
0.013182
0.009650
0.008849
0.007357
0.006547
0.018985
0.009337
0.002611
0.002561
0.001025
0.000339
0.000318
0.000654
0.001207
0.002123
0.001997
0.008526
0.022721
0.007161
0.014954
0.007786
0.006991
0.023429
0.010920
0.010084
0.009460
0.009163
0.013057
0.008321
0.010290
0.002437
0.001584
0.001245
0.001052
0.001543
0.003133
0.005594
0.006476
0.006524
0.006193
0.010657
0.032194
0.012915
0.007333
0.005909
0.009925
0.011003
0.011229
0.010004
0.012546
0.007259
0.005790
0.002166
0.000711
0.001386
0.002230
0.012505
0.013169
0.007429
0.008195
0.009627
0.012789
0.006307
0.007096
0.010683
0.009144
0.011258
0.009540
0.021183
0.007647
0.014472
0.008173
0.022966
0.002256
0.001453
0.001260
0.002280
0.005640
0.012993
0.006806
0.013881
0.009893
0.008007
0.012515
0.006076
0.007485
0.009181
0.006756
0.007510
0.008693
0.021478
0.007508
0.056254
0.007773
0.002075
0.001294
0.000846
0.000316
0.000696
0.003703
0.006582
0.007007
0.006542
0.006518
0.012254
0.017785
0.008618
0.026605
0.008307
0.006597
0.010071
0.007713
0.008098
0.008472
0.013546
0.008419
0.006793
0.002058
0.001584
0.000660
0.001307
0.002345
0.006008
0.019968
0.006444
0.008959
0.010827
0.015564
0.007129
0.007395
0.008392
0.355376
0.008540
0.024317
0.013622
0.007604
0.014258
0.007638
0.005855
0.002331
0.002179
0.000690
0.000648
0.001474
0.004353
0.008068
0.014962
0.007725
0.006107
0.007853
0.011961
0.011909
0.011312
0.008931
0.010346
0.007192
0.007152
0.009376
0.005706
0.042796
0.009370
0.002158
0.001611
0.001358
0.001033
0.000825
0.001269
0.003058
0.001996
0.005799
0.007158
0.009492
0.012674
0.006574
0.028534
0.005990
0.008083
0.006556
0.006829
0.026935
0.009924
0.007351
0.010040
0.013002
0.017868
0.002225
0.001061
0.001075
0.002224
0.006244
0.080414
0.008571
0.007455
0.009828
0.012653
0.006494
0.006702
0.008896
0.010413
0.014670
0.061546
0.006506
0.009001
0.005269
0.002327
0.001468
0.000650
0.001340
0.002263
0.002291
0.012835
0.005835
0.009286
0.020047
0.029295
0.009488
0.010823
0.009988
0.008106
0.011422
0.011528
0.005479
0.003638
0.001468
0.001011
0.000318
0.000315
0.000668
0.001559
0.001399
0.002072
0.002280
0.009417
0.009784
0.007388
0.011951
0.006564
0.007803
0.013034
0.008556
0.005172
0.002038
0.002129
0.001518
0.000311
0.001012
0.000984
0.001510
0.002265
0.002260
0.003687
0.006100
0.002022
0.005215
0.004179
0.006940
0.002495
0.011262
0.001247
0.001019
0.000630
0.001217
0.001542
0.001490
0.002420
0.001474
0.002378
0.002182
0.001422
0.001519
0.000319
0.000625
0.001025
0.001837
0.001458
0.000634
0.001008
0.000662
0.001097
0.001141
0.001008
0.000323
0.000666
0.000713
0.000639
0.000321
0.000616
0.000314
0.000316
0.000311
0.000313
0.000337
0.000318
0.000334
0.000315
0.025289
0.006949
0.003845
0.005164
0.004838
0.007581
0.004132
0.007921
0.004005
0.005122
0.005336
0.022408
0.006196
0.004822
0.003794
0.003693
0.004568
0.006375
0.004198
0.006531
0.005548
0.004959
0.003548
0.008430
0.006722
0.003720
0.005273
0.007142
0.004057
0.005315
0.007767
0.003940
0.004020
0.004612
0.004080
0.006596
0.040506
0.004425
0.003678
0.004840
0.004507
0.003714
0.005555
0.004838
0.011011
0.003623
0.005363
0.004193
0.003753
0.003888
0.003987
0.000320
0.000321
0.000327
0.000315
0.000641
0.000722
0.000322
0.000678
0.001478
0.000715
0.001302
0.001243
0.001018
0.002902
0.001056
0.002449
0.001235
0.000697
0.000331
0.001065
0.001560
0.001494
0.002351
0.002254
0.003074
0.001624
0.003249
0.003756
0.003310
0.001263
0.000837
0.000330
0.000313
0.000680
0.001256
0.002770
0.002415
0.010819
0.010370
0.007516
0.012010
0.026577
0.004932
0.007978
0.002053
0.010218
0.001421
0.001720
0.000687
0.000810
0.001430
0.008813
0.002738
0.013749
0.006164
0.019123
0.006632
0.009619
0.042504
0.017501
0.005450
0.006410
0.006565
0.005900
0.002302
0.001298
0.000652
0.001260
0.002364
0.017739
0.008570
0.008475
0.007314
0.008230
0.008154
0.010320
0.011063
0.006917
0.011235
0.011754
0.021463
0.008934
0.003709
0.002096
0.001032
0.000327
0.000321
0.000669
0.001192
0.003276
0.002123
0.008681
0.012626
0.007783
0.006333
0.013272
0.009239
0.011323
0.005979
0.007034
0.006599
0.013254
0.013667
0.012646
0.008307
0.003291
0.001587
0.001239
0.001054
0.001542
0.003312
0.005549
0.014832
0.010108
0.007428
0.019250
0.007938
0.029410
0.006150
0.007649
0.007302
0.014936
0.010917
0.022762
0.011192
0.016003
0.016517
0.002315
0.000714
0.001381
0.003136
0.005354
0.009315
0.012372
0.007460
0.016014
0.013999
0.008747
0.011663
0.017979
0.019810
0.013463
0.006272
0.006709
0.006072
0.008457
0.010214
0.005778
0.002337
0.001471
0.001254
0.002054
0.004611
0.005664
0.005963
0.007123
0.025456
0.008852
0.012206
0.006227
0.012297
0.012019
0.007892
0.005618
0.007279
0.005483
0.009975
0.006717
0.013571
0.002094
0.001258
0.000839
0.000332
0.000689
0.003156
0.010298
0.009495
0.013309
0.007479
0.014179
0.011574
0.009150
0.010267
0.009242
0.023624
0.005693
0.011498
0.006808
0.017904
0.016479
0.005442
0.683963
0.002390
0.001571
0.000654
0.001301
0.002254
0.010817
0.010048
0.009534
0.006152
0.014080
0.012181
0.018268
0.009155
0.009267
0.009412
0.024812
0.007594
0.018533
0.008560
0.006216
0.015732
0.006994
0.002758
0.002228
0.000730
0.000637
0.001471
0.002327
0.013722
0.011317
0.008095
0.008042
0.005344
0.008621
0.008385
0.015854
0.008456
0.008983
0.007493
0.006291
0.005652
0.011211
0.046157
0.006206
0.002244
0.001623
0.001322
0.001018
0.000803
0.001279
0.002184
0.001840
0.007318
0.018950
0.017303
0.007285
0.018121
0.007934
0.005539
0.008778
0.006812
0.012649
0.006553
0.010910
0.007888
0.010307
0.079369
0.002303
0.002511
0.001076
0.001065
0.002325
0.010341
0.006477
0.013960
0.018460
0.018962
0.007836
0.006286
0.007127
0.009732
0.017379
0.010623
0.008497
0.006800
0.021328
0.008047
0.002115
0.001452
0.000635
0.001345
0.002076
0.002668
0.011598
0.043460
0.021615
0.009098
0.008495
0.012662
0.016636
0.021605
0.009971
0.009962
0.035895
0.004779
0.002541
0.001476
0.001023
0.000319
0.000317
0.000700
0.001562
0.001406
0.004157
0.002418
0.010683
0.006389
0.018903
0.013165
0.013216
0.008835
0.007427
0.007110
0.005189
0.002072
0.001982
0.001506
0.000318
0.000997
0.000997
0.001509
0.002002
0.002325
0.002090
0.009847
0.003843
0.008052
0.002930
0.006708
0.002208
0.002050
0.001335
0.001025
0.000632
0.001195
0.001521
0.001491
0.002494
0.001460
0.002255
0.002044
0.001408
0.001502
0.000323
0.000630
0.001025
0.001873
0.001446
0.000648
0.001051
0.000674
0.001085
0.001119
0.000987
0.000319
0.000678
0.000699
0.000637
0.000318
0.000653
0.000317
0.000309
0.000312
0.000321
0.000325
0.000388
0.000329
0.000316
0.006755
0.006027
0.005732
0.005444
0.004210
0.004079
0.047559
0.003158
0.014826
0.005046
0.004398
0.005498
0.003500
0.003463
0.006540
0.003977
0.003920
0.004033
0.004031
0.003428
0.003628
0.043884
0.004064
0.003149
0.008644
0.004191
0.003881
0.005246
0.009946
0.005139
0.005841
0.005296
0.006605
0.004340
0.003806
0.009727
0.004981
0.005152
0.004410
0.003846
0.006488
0.006284
0.028812
0.003704
0.006993
0.004534
0.003883
0.005176
0.005482
0.004802
0.004664
0.000348
0.000323
0.000322
0.000326
0.000652
0.000706
0.000346
0.000649
0.001445
0.000714
0.001299
0.001247
0.001030
0.001998
0.001041
0.002049
0.001215
0.000697
0.000332
0.001056
0.001547
0.001466
0.002492
0.002146
0.005803
0.001540
0.002058
0.002133
0.002407
0.001238
0.000823
0.000483
0.000322
0.000676
0.001253
0.002274
0.002197
0.004866
0.010749
0.015692
0.010614
0.007135
0.006665
0.021683
0.002468
0.001953
0.001449
0.000659
0.000695
0.000794
0.001380
0.002211
0.002067
0.006674
0.009734
0.006778
0.007138
0.005801
0.021365
0.006366
0.004694
0.009773
0.009858
0.034863
0.002368
0.001260
0.000661
0.001276
0.002028
0.006285
0.021062
0.007981
0.009279
0.007740
0.008776
0.006275
0.006678
0.012217
0.005559
0.016530
0.011043
0.006719
0.002788
0.002238
0.001015
0.000337
0.000327
0.000659
0.001202
0.002813
0.001936
0.007795
0.008644
0.008204
0.017429
0.005682
0.010549
0.008782
0.008147
0.005294
0.008412
0.007378
0.012633
0.010367
0.008176
0.002411
0.001538
0.001218
0.001048
0.001497
0.002638
0.007071
0.011745
0.006855
0.013221
0.005696
0.008399
0.006986
0.011051
0.049418
0.005745
0.006097
0.024601
0.007550
0.049863
0.007538
0.005952
0.002806
0.000709
0.001367
0.002253
0.015148
0.022801
0.006989
0.018354
0.019835
0.024647
0.009265
0.007000
0.010776
0.025311
0.014066
0.005016
0.016238
0.006882
0.007210
0.011013
0.006220
0.002748
0.001408
0.001254
0.002597
0.014584
0.004910
0.007113
0.022300
0.012438
0.008954
0.013592
0.011082
0.012004
0.020713
0.011198
0.008931
0.006129
0.008386
0.014160
0.005786
0.011025
0.001956
0.001266
0.000832
0.000327
0.000698
0.002024
0.005947
0.013014
0.014040
0.007784
0.010384
0.012445
0.006904
0.006268
0.009792
0.018002
0.017185
0.008577
0.010277
0.007285
0.006210
0.011622
0.007189
0.002806
0.001535
0.000656
0.001269
0.002131
0.006500
0.006315
0.006583
0.007912
0.005482
0.008838
0.024419
0.009764
0.007317
0.018034
0.011521
1.149176
0.008585
0.007511
0.011041
0.005570
0.010472
0.005731
0.002139
0.000696
0.000641
0.001426
0.002119
0.014502
0.014741
0.006104
0.008817
0.011993
0.026737
0.019211
0.009142
0.009749
0.009639
0.008423
0.007128
0.014685
0.006504
0.009763
0.007863
0.002167
0.001564
0.001318
0.001011
0.000802
0.001236
0.002886
0.001734
0.006789
0.023464
0.012243
0.006732
0.007232
0.008419
0.022598
0.024980
0.006988
0.010205
0.007807
0.012877
0.022046
0.013907
0.009778
0.001998
0.002313
0.001060
0.001047
0.002201
0.007823
0.011975
0.005126
0.031076
0.005227
0.041205
0.008519
0.005335
0.027399
0.007978
0.022156
0.008491
0.012174
0.009032
0.005831
0.002595
0.001421
0.000662
0.001327
0.002447
0.002057
0.011789
0.009310
0.005915
0.006535
0.010079
0.005628
0.033965
0.006163
0.006537
0.005979
0.027362
0.035902
0.002221
0.001426
0.000997
0.000326
0.000322
0.000717
0.001520
0.001382
0.002338
0.002430
0.012045
0.044340
0.005875
0.007852
0.011726
0.007851
0.008246
0.007506
0.004426
0.002052
0.001936
0.001480
0.000319
0.001000
0.000971
0.001475
0.001912
0.002251
0.003342
0.004375
0.002042
0.016759
0.002875
0.004855
0.006497
0.011850
0.001236
0.001011
0.000639
0.001193
0.001497
0.001459
0.009052
0.001445
0.002117
0.002046
0.001364
0.001480
0.000322
0.000625
0.001009
0.002468
0.001431
0.000633
0.001003
0.000679
0.001078
0.001119
0.000991
0.000320
0.000688
0.000714
0.000645
0.000323
0.000635
0.000317
0.000320
0.000312
0.000316
0.000325
0.000325
0.000315
0.000320
0.013631
0.005308
0.005138
0.009286
0.003043
0.003953
0.004399
0.433006
0.004124
0.003457
0.004074
0.003954
0.005222
0.009094
0.004723
0.003508
0.007386
0.003981
0.004575
0.006081
0.005844
0.003711
0.004712
0.007498
0.004392
0.004100
0.004681
0.004985
0.005761
0.004353
0.003442
0.004257
0.012842
0.004456
0.013003
0.003457
0.006208
0.004406
0.003422
0.005711
0.004305
0.003460
0.003564
0.004759
0.026539
0.004908
0.003691
0.008532
0.003444
0.004924
0.003793
0.000324
0.000323
0.000338
0.000314
0.000680
0.000716
0.000318
0.000646
0.001421
0.000723
0.001280
0.001241
0.001025
0.002047
0.001038
0.001944
0.001213
0.000698
0.000321
0.001062
0.001506
0.001448
0.003679
0.004234
0.002287
0.001536
0.001921
0.002469
0.002220
0.001236
0.000832
0.000325
0.000311
0.000677
0.001246
0.003215
0.002510
0.004321
0.005048
0.010188
0.014430
0.007381
0.018797
0.006060
0.001847
0.002154
0.001392
0.000651
0.000673
0.000801
0.001367
0.002238
0.002026
0.005817
0.015968
0.005759
0.077437
0.017360
0.007225
0.013955
0.008075
0.004981
0.004676
0.004224
0.002251
0.001414
0.000665
0.001254
0.002131
0.021948
0.004745
0.006683
0.007167
0.005305
0.006684
0.007783
0.010113
0.012780
0.006132
0.005001
0.025135
0.005828
0.002147
0.001968
0.001063
0.000319
0.000319
0.000653
0.001184
0.002390
0.002565
0.004825
0.011618
0.028456
0.008819
0.009418
0.006810
0.006783
0.011971
0.012438
0.006972
0.025358
0.007665
0.012217
0.010201
0.002090
0.001520
0.001231
0.001046
0.001494
0.002202
0.004258
0.017604
0.012685
0.006733
0.007078
0.004914
0.007878
0.011004
0.006763
0.009653
0.005416
0.006087
0.008426
0.019540
0.007450
0.006721
0.003170
0.000714
0.001350
0.002328
0.005246
0.006871
0.007576
0.033405
0.017868
0.007332
0.006594
0.018294
0.062688
0.006037
0.013618
0.005668
0.005891
0.010056
0.006170
0.018584
0.045211
0.002121
0.001420
0.001225
0.002240
0.005151
0.004487
0.005637
0.005948
0.006777
0.010723
0.014922
0.005150
0.005643
0.007892
0.006150
0.006384
0.009187
0.012412
0.007657
0.023376
0.005216
0.002009
0.001258
0.000838
0.000312
0.000689
0.001967
0.004698
0.005502
0.006576
0.006082
0.010129
0.013977
0.007609
0.005868
0.111604
0.005424
0.005648
0.008010
0.005912
0.007125
0.006182
0.009506
0.005953
0.001989
0.001513
0.000657
0.001279
0.002941
0.004192
0.026308
0.008041
0.007397
0.004943
0.006894
0.045936
0.017588
0.006571
0.006404
0.009504
0.006743
0.007643
0.005633
0.007463
0.009254
0.042296
0.002892
0.002249
0.000748
0.000638
0.001422
0.002319
0.010260
0.007425
0.009174
0.006395
0.005803
0.046859
0.006728
0.008824
0.005696
0.016533
0.005533
0.008501
0.005419
0.006075
0.007511
0.004300
0.002137
0.001545
0.001309
0.001025
0.000815
0.001226
0.003220
0.001635
0.008504
0.006768
0.006724
0.007872
0.005770
0.055804
0.009374
0.005064
0.037339
0.021642
0.014358
0.010514
0.005507
0.005719
0.008658
0.002166
0.001957
0.001059
0.001064
0.001947
0.004571
0.006289
0.005526
0.005423
0.006579
0.020746
0.007243
0.013941
0.007287
0.099713
0.011685
0.007618
0.006122
0.012615
0.005620
0.002208
0.001500
0.000638
0.001320
0.002113
0.002317
0.007230
0.006414
0.022215
0.009775
0.005419
0.011292
0.008205
0.006831
0.006097
0.006137
0.009151
0.006613
0.003016
0.001413
0.001010
0.000327
0.000315
0.000680
0.001504
0.001365
0.002013
0.002297
0.007471
0.006035
0.005559
0.008416
0.006507
0.006352
0.005727
0.006226
0.007196
0.003808
0.001893
0.001472
0.000343
0.000990
0.000968
0.001458
0.001777
0.002510
0.013056
0.006276
0.002017
0.005095
0.002105
0.006647
0.002161
0.002412
0.001231
0.001019
0.000630
0.001188
0.001478
0.001440
0.002147
0.001416
0.002059
0.002420
0.001382
0.001462
0.000322
0.000629
0.001021
0.001738
0.001423
0.000612
0.001002
0.000664
0.001058
0.001134
0.001106
0.000334
0.000668
0.000693
0.000642
0.000316
0.000625
0.000320
0.000317
0.000319
0.000315
0.000327
0.000314
0.000333
0.000314
0.004314
0.005529
0.002945
0.004203
0.003109
0.003190
0.006060
0.004153
0.003739
0.003080
0.003483
0.005591
0.005418
0.004252
0.004482
0.003984
0.010603
0.004348
0.005704
0.004030
0.003037
0.003345
0.005550
0.003299
0.003564
0.004951
0.003803
0.003082
0.003828
0.010999
0.003559
0.004039
0.006393
0.003456
0.003654
0.003995
0.004274
0.003778
0.005100
0.003289
0.009405
0.003258
0.002959
0.006804
0.017081
0.002990
0.007675
0.003844
0.008597
0.004183
0.008256
0.000333
0.000323
0.000324
0.000317
0.000644
0.000723
0.000314
0.000666
0.001436
0.000744
0.001283
0.001253
0.001040
0.002729
0.001046
0.001965
0.001246
0.000700
0.000321
0.001075
0.001526
0.001440
0.002709
0.002001
0.002060
0.001524
0.002505
0.001882
0.002061
0.001251
0.000826
0.000325
0.000326
0.000668
0.001250
0.002047
0.003176
0.005539
0.005029
0.007236
0.006270
0.015276
0.004167
0.007201
0.001932
0.002122
0.001380
0.000676
0.000703
0.000812
0.001353
0.002022
0.002289
0.004904
0.005522
0.006675
0.028786
0.006718
0.006516
0.010971
0.008834
0.007979
0.005253
0.006984
0.002083
0.001274
0.000655
0.001242
0.002281
0.007641
0.009436
0.004638
0.005951
0.006050
0.007374
0.005097
0.010904
0.007009
0.004913
0.007878
0.004646
0.006415
0.002030
0.001912
0.001040
0.000333
0.000320
0.000683
0.001214
0.002002
0.001957
0.006794
0.006295
0.005808
0.004892
0.012009
0.005098
0.033626
0.007950
0.018110
0.007284
0.005695
0.008897
0.004764
0.004106
0.002046
0.001524
0.001233
0.001064
0.001542
0.005018
0.008204
0.015247
0.006774
0.006882
0.005731
0.007231
0.026892
0.005462
0.006515
0.007174
0.005713
0.007642
0.006326
0.009797
0.006174
0.006019
0.002167
0.000727
0.001373
0.002223
0.004802
0.004873
0.004974
0.007012
0.005844
0.005645
0.006093
0.006245
0.013539
0.007115
0.005996
0.007571
0.008850
0.005438
0.005224
0.356846
0.006644
0.002248
0.001400
0.001201
0.002194
0.010790
0.020255
0.005297
0.006255
0.005083
0.018728
0.006702
0.006868
0.042604
0.010357
0.008380
0.021496
0.006306
0.006008
0.020680
0.009452
0.004933
0.001928
0.001282
0.000836
0.000322
0.000711
0.001918
0.010420
0.007056
0.006815
0.006451
0.005950
0.006482
0.006630
0.005089
0.011813
0.005237
0.015859
0.009992
0.007104
0.009275
0.007807
0.013359
0.005389
0.002272
0.001513
0.000684
0.001286
0.001941
0.011422
0.008648
0.010413
0.009237
0.112933
0.008081
0.010044
0.006124
0.011704
0.005529
0.093921
0.006659
0.005293
0.006140
0.005357
0.005400
0.004969
0.002432
0.002102
0.000691
0.000653
0.001456
0.001938
0.008731
0.008507
0.006120
0.005012
0.007699
0.100796
0.006693
0.006196
0.005013
0.007556
0.013012
0.007477
0.007084
0.010536
0.005253
0.005530
0.002346
0.001561
0.001319
0.001023
0.000823
0.001233
0.001960
0.002343
0.006861
0.006673
0.005371
0.006124
0.010704
0.005344
0.010343
0.042646
0.008034
0.006808
0.006173
0.005510
0.006905
0.006075
0.011510
0.001973
0.002031
0.001067
0.001061
0.002016
0.003807
0.005862
0.007760
0.005562
0.006095
0.007044
0.010729
0.007378
0.006723
0.008686
0.025041
0.007863
0.010493
0.007270
0.005092
0.001977
0.001422
0.000662
0.001336
0.003967
0.002511
0.004819
0.011984
0.009035
0.005981
0.006277
0.005744
0.014398
0.004534
0.007970
0.004425
0.005888
0.003706
0.002921
0.001467
0.001022
0.000319
0.000316
0.000692
0.001514
0.001361
0.001992
0.002153
0.010862
0.024722
0.004901
0.005994
0.031367
0.007115
0.012436
0.004744
0.004368
0.001928
0.002054
0.001480
0.000325
0.001011
0.000982
0.001485
0.002365
0.002119
0.002279
0.004970
0.002271
0.004299
0.002031
0.010239
0.002542
0.002377
0.001357
0.001055
0.000639
0.001181
0.001477
0.001458
0.001995
0.001424
0.002329
0.001866
0.001379
0.001463
0.000316
0.000621
0.001020
0.002201
0.001430
0.000628
0.001009
0.000689
0.001102
0.001145
0.001020
0.000315
0.000679
0.000711
0.000745
0.000318
0.000629
0.000318
0.000316
0.000315
0.000315
0.000326
0.000323
0.000329
0.000317
0.004274
0.005002
0.003167
0.002959
0.002942
0.003247
0.002987
0.002768
0.005726
0.003127
0.003682
0.004390
0.003387
0.005112
0.006977
0.003830
0.020140
0.008979
0.003978
0.003766
0.003101
0.002888
0.005964
0.003001
0.010824
0.003232
0.005021
0.004086
0.004853
0.005164
0.003813
0.005198
0.005008
0.003193
0.003499
0.004828
0.005074
0.006606
0.012230
0.003327
0.004371
0.002941
0.015402
0.007662
0.003451
0.005228
0.009129
0.004324
0.003001
0.003266
0.002865
0.000323
0.000315
0.000319
0.000325
0.000650
0.000735
0.000325
0.000656
0.001414
0.000737
0.001312
0.001263
0.001048
0.002359
0.001066
0.001911
0.001232
0.000707
0.000342
0.001077
0.001509
0.001450
0.002128
0.002610
0.003026
0.001526
0.001841
0.009075
0.002141
0.001280
0.000849
0.000325
0.000319
0.000693
0.001274
0.002030
0.002335
0.005662
0.004453
0.016988
0.004186
0.004430
0.019949
0.006049
0.002098
0.003441
0.001449
0.000661
0.000718
0.000819
0.001389
0.001984
0.001964
0.008617